
# Re-equilibrium

thermo 	500
thermo_style custom step c_myCTtemp c_myWPtemp press etotal fmax fnorm

run 40000 # 20 ps
No /omp style for force computation currently active
WARNING: One or more atoms are time integrated more than once (../modify_cuda.cpp:225)
Memory usage per processor = 25.0379 Mbytes
Step myCTtemp myWPtemp Press TotEng Fmax Fnorm 
       0    312.81232    373.51935   -2662.4546   -1028161.1    8.1053614    760.83262 
WARNING: # CUDA: You asked for a Verlet integration using Cuda, but several fixes have not yet been ported to Cuda.
This can cause a severe speed penalty due to frequent data synchronization between host and GPU. (../verlet_cuda.cpp:629)
     500    319.88173    375.42517    25851.184   -994579.07    4098.4225    15143.531 
    1000    326.25576    375.79782    27469.948   -994598.39    4098.4225    15143.521 
    1500    317.11723    378.29326    28558.296    -994603.2    4098.4225    15143.539 
    2000    315.29787    374.81704    30624.196   -994601.67    4098.4225    15143.674 
    2500    313.84711    376.85373    28375.558   -994605.66    4098.4225    15143.588 
    3000    319.51038    378.33047    28399.452   -994609.15    4098.4225    15143.501 
    3500     313.6602    374.74148    26173.353   -994611.67    4098.4225    15143.485 
    4000    316.40678    374.36602    24563.278   -994602.86    4098.4225    15143.328 
    4500    312.47699    373.94206    25355.977   -994587.46    4098.4225    15143.487 
    5000    314.07452    375.42566    25363.807   -994602.35    4098.4225    15143.421 
    5500    311.72589     375.5556    27839.708   -994605.85    4098.4225    15143.562 
    6000    308.97441    376.53038    28770.527    -994633.4    4098.4225    15143.629 
    6500    310.20199    375.76179    29722.257   -994633.93    4098.4225    15143.552 
    7000    310.81788    375.98606    29405.182   -994628.01    4098.4225    15143.629 
    7500    308.41105    376.71219    26743.231   -994629.79    4098.4225    15143.435 
    8000    308.42838    375.18128    25656.381   -994636.64    4098.4225    15143.429 
    8500    308.66126    375.02473    24225.217    -994626.3    4098.4225     15143.39 
    9000     307.7314    374.31463    25299.919   -994628.59    4098.4225    15143.436 
    9500      309.823     376.1023    26289.316   -994632.37    4098.4225    15143.479 
   10000    308.39212      375.094     27887.96   -994646.99    4098.4225    15143.602 
   10500    306.66776    376.35059    29508.639   -994638.71    4098.4225    15143.642 
   11000    304.14363    376.02441    28944.004   -994631.72    4098.4225    15143.584 
   11500    306.60069    375.28396    28589.184   -994634.94    4098.4225    15143.648 
   12000    308.53907    375.31752    26952.188   -994640.86    4098.4225    15143.525 
   12500       307.94    374.46304    25380.337    -994620.3    4098.4225    15143.473 
   13000    311.31357    374.17024    24278.164   -994623.62    4098.4225    15143.342 
   13500    307.40723    375.00226    24733.688   -994642.71    4098.4225    15143.408 
   14000    306.55364    375.97356    26042.435   -994636.67    4098.4225    15143.518 
   14500    309.63089    375.83377    28107.525   -994646.12    4098.4225    15143.596 
   15000    308.43273    376.39688    29512.847   -994651.07    4098.4225    15143.742 
   15500    309.57371      377.154      29953.7   -994657.22    4098.4225    15143.558 
   16000    302.45202    377.47957    28106.523   -994653.77    4098.4225    15143.517 
   16500    305.94822    374.81859    27462.243   -994646.17    4098.4225    15143.621 
   17000    311.33341    374.01031    25022.524    -994661.3    4098.4225    15143.368 
   17500    306.96033    372.30661    23891.419    -994663.4    4098.4225    15143.326 
   18000    310.77989     374.2281    25175.811   -994668.49    4098.4225    15143.463 
   18500    303.13857    374.49322    25127.757   -994663.85    4098.4225    15143.401 
   19000    307.49108    377.65991    29023.892   -994659.92    4098.4225    15143.538 
   19500     307.0773    375.86202    29475.261   -994654.89    4098.4225    15143.669 
   20000    306.39013    375.26905    29238.116   -994661.53    4098.4225    15143.576 
   20500    301.18314    378.03761    29129.335   -994667.69    4098.4225    15143.539 
   21000    299.98486     376.6017    26172.811   -994663.15    4098.4225     15143.47 
   21500     305.9191    374.33183    25019.607   -994655.99    4098.4225    15143.293 
   22000    302.68253     373.6956    23294.058   -994648.75    4098.4225    15143.287 
   22500    307.65176    375.90729    25346.245    -994641.5    4098.4225     15143.45 
   23000    300.29244     376.0591    25920.071   -994643.19    4098.4225    15143.434 
   23500    301.92604    376.64429    28300.885   -994647.66    4098.4225    15143.695 
   24000    308.38171    377.79647    30459.509    -994654.2    4098.4225    15143.629 
   24500    306.84738    375.81551    29103.447   -994648.18    4098.4225    15143.672 
   25000    305.04839     376.7022    28184.521   -994662.13    4098.4225    15143.454 
   25500    305.73265    376.79685    25987.158   -994650.95    4098.4225    15143.427 
   26000    305.25024    375.52801    24728.213   -994641.35    4098.4225    15143.345 
   26500    309.57021    375.13183    24163.451   -994644.72    4098.4225    15143.371 
   27000    308.75015    374.04818    25240.945   -994633.52    4098.4225    15143.483 
   27500    309.79823    376.65047     26603.05   -994644.87    4098.4225    15143.463 
   28000    302.79901    377.17839    28246.598   -994640.93    4098.4225    15143.567 
   28500    303.88074    376.25382    30364.464   -994653.87    4098.4225    15143.717 
   29000    305.72263    375.18261    29002.163   -994659.17    4098.4225     15143.59 
   29500    303.65375    374.05814    27052.322   -994650.95    4098.4225    15143.585 
   30000    304.85249    375.53474    25696.429   -994652.32    4098.4225    15143.431 
   30500    306.82432    374.02869    24955.067   -994649.87    4098.4225    15143.482 
   31000    313.14156    374.63639    24521.344   -994640.37    4098.4225    15143.404 
   31500    309.95191    376.25309    25920.485   -994629.05    4098.4225    15143.496 
   32000    305.71687    376.62784    26954.331   -994649.52    4098.4225    15143.477 
   32500    303.73408    376.94533    28625.806   -994655.57    4098.4225    15143.631 
   33000    302.37254     373.9952    29168.677   -994667.68    4098.4225    15143.656 
   33500    302.56486    376.69806    28665.795    -994681.3    4098.4225    15143.573 
   34000     300.9795    376.34348     27473.43   -994665.27    4098.4225    15143.599 
   34500    303.23177    376.56248    25673.535   -994660.07    4098.4225    15143.435 
   35000    306.41343    374.03668    25024.586   -994680.95    4098.4225    15143.414 
   35500    307.21207    375.39062    24343.896   -994652.59    4098.4225    15143.402 
   36000     304.7756    374.44153    26006.397   -994668.41    4098.4225    15143.482 
   36500    310.57329    375.83496    27389.698   -994647.21    4098.4225    15143.571 
   37000     306.8921     375.9864    28391.074   -994673.41    4098.4225    15143.503 
   37500    305.45916    377.68013    29847.428   -994671.92    4098.4225    15143.664 
   38000    304.79622    375.55203    28720.553   -994656.82    4098.4225    15143.702 
   38500    304.39054    374.48391     27540.24   -994658.77    4098.4225    15143.578 
   39000    307.26669    375.44979    25338.411   -994646.74    4098.4225    15143.498 
   39500     302.3647    373.60391    24268.254   -994645.85    4098.4225     15143.37 
   40000    307.06204    375.62981    24737.955   -994641.41    4098.4225    15143.442 
Loop time of 11848.9 on 2 procs for 40000 steps with 163759 atoms

Pair  time (%) = 2604.16 (21.9782)
Neigh time (%) = 79.4819 (0.670798)
Comm  time (%) = 1098.42 (9.27029)
Outpt time (%) = 1.08806 (0.00918287)
Other time (%) = 8065.7 (68.0716)

Nlocal:    81879.5 ave 81880 max 81879 min
Histogram: 1 0 0 0 0 0 0 0 0 1
Nghost:    34821 ave 35249 max 34393 min
Histogram: 1 0 0 0 0 0 0 0 0 1
Neighs:    0 ave 0 max 0 min
Histogram: 2 0 0 0 0 0 0 0 0 0
FullNghs:  4.01393e+06 ave 4.36211e+06 max 3.66575e+06 min
Histogram: 1 0 0 0 0 0 0 0 0 1

Total # of neighbors = 8027856
Ave neighs/atom = 49.0224
Neighbor list builds = 1333
Dangerous builds = 0

print "Complete re-equilibrium"
Complete re-equilibrium

# start cutting

log ${respath}/log_files/cut_sic_cut.log
log eq_fix2_3.0x100_m_s-1_Groove1.5T1_SiC_EA/log_files/cut_sic_cut.log
