ITEM: TIMESTEP
0
ITEM: NUMBER OF NODES
16
ITEM: BOX BOUNDS
-0.0323169 323.134
-0.00821494 82.1412
0 78.6006
ITEM: NODES
1 1 -0.0323169 -0.00821494 0
2 1 161.551 -0.00821494 0
3 1 161.551 82.1412 0
4 1 -0.0323169 82.1412 0
5 1 -0.0323169 -0.00821494 78.6006
6 1 161.551 -0.00821494 78.6006
7 1 161.551 82.1412 78.6006
8 1 -0.0323169 82.1412 78.6006
9 1 161.551 -0.00821494 0
10 1 323.134 -0.00821494 0
11 1 323.134 82.1412 0
12 1 161.551 82.1412 0
13 1 161.551 -0.00821494 78.6006
14 1 323.134 -0.00821494 78.6006
15 1 323.134 82.1412 78.6006
16 1 161.551 82.1412 78.6006
ITEM: TIMESTEP
0
ITEM: NUMBER OF CUBES
2
ITEM: CUBES
1 1 1 2 3 4 5 6 7 8
2 1 9 10 11 12 13 14 15 16
ITEM: TIMESTEP
30
ITEM: NUMBER OF NODES
16
ITEM: BOX BOUNDS
-0.0323169 323.134
-0.00821494 82.1412
0 78.6006
ITEM: NODES
1 1 -0.0323169 -0.00821494 0
2 1 162.607 -0.00821494 0
3 1 162.607 82.1412 0
4 1 -0.0323169 82.1412 0
5 1 -0.0323169 -0.00821494 78.6006
6 1 162.607 -0.00821494 78.6006
7 1 162.607 82.1412 78.6006
8 1 -0.0323169 82.1412 78.6006
9 1 162.607 -0.00821494 0
10 1 323.134 -0.00821494 0
11 1 323.134 82.1412 0
12 1 162.607 82.1412 0
13 1 162.607 -0.00821494 78.6006
14 1 323.134 -0.00821494 78.6006
15 1 323.134 82.1412 78.6006
16 1 162.607 82.1412 78.6006
ITEM: TIMESTEP
30
ITEM: NUMBER OF CUBES
2
ITEM: CUBES
1 1 1 2 3 4 5 6 7 8
2 1 9 10 11 12 13 14 15 16
ITEM: TIMESTEP
60
ITEM: NUMBER OF NODES
16
ITEM: BOX BOUNDS
-0.0323169 323.134
-0.00821494 82.1412
0 78.6006
ITEM: NODES
1 1 -0.0323169 -0.00821494 0
2 1 162.606 -0.00821494 0
3 1 162.606 82.1412 0
4 1 -0.0323169 82.1412 0
5 1 -0.0323169 -0.00821494 78.6006
6 1 162.606 -0.00821494 78.6006
7 1 162.606 82.1412 78.6006
8 1 -0.0323169 82.1412 78.6006
9 1 162.606 -0.00821494 0
10 1 323.134 -0.00821494 0
11 1 323.134 82.1412 0
12 1 162.606 82.1412 0
13 1 162.606 -0.00821494 78.6006
14 1 323.134 -0.00821494 78.6006
15 1 323.134 82.1412 78.6006
16 1 162.606 82.1412 78.6006
ITEM: TIMESTEP
60
ITEM: NUMBER OF CUBES
2
ITEM: CUBES
1 1 1 2 3 4 5 6 7 8
2 1 9 10 11 12 13 14 15 16
ITEM: TIMESTEP
90
ITEM: NUMBER OF NODES
16
ITEM: BOX BOUNDS
-0.0323169 323.134
-0.00821494 82.1412
0 78.6006
ITEM: NODES
1 1 -0.0323169 -0.00821494 0
2 1 162.596 -0.00821494 0
3 1 162.596 82.1412 0
4 1 -0.0323169 82.1412 0
5 1 -0.0323169 -0.00821494 78.6006
6 1 162.596 -0.00821494 78.6006
7 1 162.596 82.1412 78.6006
8 1 -0.0323169 82.1412 78.6006
9 1 162.596 -0.00821494 0
10 1 323.134 -0.00821494 0
11 1 323.134 82.1412 0
12 1 162.596 82.1412 0
13 1 162.596 -0.00821494 78.6006
14 1 323.134 -0.00821494 78.6006
15 1 323.134 82.1412 78.6006
16 1 162.596 82.1412 78.6006
ITEM: TIMESTEP
90
ITEM: NUMBER OF CUBES
2
ITEM: CUBES
1 1 1 2 3 4 5 6 7 8
2 1 9 10 11 12 13 14 15 16
ITEM: TIMESTEP
120
ITEM: NUMBER OF NODES
16
ITEM: BOX BOUNDS
-0.0323169 323.134
-0.00821494 82.1412
0 78.6006
ITEM: NODES
1 1 -0.0323169 -0.00821494 0
2 1 162.585 -0.00821494 0
3 1 162.585 82.1412 0
4 1 -0.0323169 82.1412 0
5 1 -0.0323169 -0.00821494 78.6006
6 1 162.585 -0.00821494 78.6006
7 1 162.585 82.1412 78.6006
8 1 -0.0323169 82.1412 78.6006
9 1 162.585 -0.00821494 0
10 1 323.134 -0.00821494 0
11 1 323.134 82.1412 0
12 1 162.585 82.1412 0
13 1 162.585 -0.00821494 78.6006
14 1 323.134 -0.00821494 78.6006
15 1 323.134 82.1412 78.6006
16 1 162.585 82.1412 78.6006
ITEM: TIMESTEP
120
ITEM: NUMBER OF CUBES
2
ITEM: CUBES
1 1 1 2 3 4 5 6 7 8
2 1 9 10 11 12 13 14 15 16
ITEM: TIMESTEP
150
ITEM: NUMBER OF NODES
16
ITEM: BOX BOUNDS
-0.0323169 323.134
-0.00821494 82.1412
0 78.6006
ITEM: NODES
1 1 -0.0323169 -0.00821494 0
2 1 162.575 -0.00821494 0
3 1 162.575 82.1412 0
4 1 -0.0323169 82.1412 0
5 1 -0.0323169 -0.00821494 78.6006
6 1 162.575 -0.00821494 78.6006
7 1 162.575 82.1412 78.6006
8 1 -0.0323169 82.1412 78.6006
9 1 162.575 -0.00821494 0
10 1 323.134 -0.00821494 0
11 1 323.134 82.1412 0
12 1 162.575 82.1412 0
13 1 162.575 -0.00821494 78.6006
14 1 323.134 -0.00821494 78.6006
15 1 323.134 82.1412 78.6006
16 1 162.575 82.1412 78.6006
ITEM: TIMESTEP
150
ITEM: NUMBER OF CUBES
2
ITEM: CUBES
1 1 1 2 3 4 5 6 7 8
2 1 9 10 11 12 13 14 15 16
ITEM: TIMESTEP
180
ITEM: NUMBER OF NODES
16
ITEM: BOX BOUNDS
-0.0323169 323.134
-0.00821494 82.1412
0 78.6006
ITEM: NODES
1 1 -0.0323169 -0.00821494 0
2 1 162.56 -0.00821494 0
3 1 162.56 82.1412 0
4 1 -0.0323169 82.1412 0
5 1 -0.0323169 -0.00821494 78.6006
6 1 162.56 -0.00821494 78.6006
7 1 162.56 82.1412 78.6006
8 1 -0.0323169 82.1412 78.6006
9 1 162.56 -0.00821494 0
10 1 323.134 -0.00821494 0
11 1 323.134 82.1412 0
12 1 162.56 82.1412 0
13 1 162.56 -0.00821494 78.6006
14 1 323.134 -0.00821494 78.6006
15 1 323.134 82.1412 78.6006
16 1 162.56 82.1412 78.6006
ITEM: TIMESTEP
180
ITEM: NUMBER OF CUBES
2
ITEM: CUBES
1 1 1 2 3 4 5 6 7 8
2 1 9 10 11 12 13 14 15 16
ITEM: TIMESTEP
210
ITEM: NUMBER OF NODES
16
ITEM: BOX BOUNDS
-0.0323169 323.134
-0.00821494 82.1412
0 78.6006
ITEM: NODES
1 1 -0.0323169 -0.00821494 0
2 1 162.55 -0.00821494 0
3 1 162.55 82.1412 0
4 1 -0.0323169 82.1412 0
5 1 -0.0323169 -0.00821494 78.6006
6 1 162.55 -0.00821494 78.6006
7 1 162.55 82.1412 78.6006
8 1 -0.0323169 82.1412 78.6006
9 1 162.55 -0.00821494 0
10 1 323.134 -0.00821494 0
11 1 323.134 82.1412 0
12 1 162.55 82.1412 0
13 1 162.55 -0.00821494 78.6006
14 1 323.134 -0.00821494 78.6006
15 1 323.134 82.1412 78.6006
16 1 162.55 82.1412 78.6006
ITEM: TIMESTEP
210
ITEM: NUMBER OF CUBES
2
ITEM: CUBES
1 1 1 2 3 4 5 6 7 8
2 1 9 10 11 12 13 14 15 16
ITEM: TIMESTEP
240
ITEM: NUMBER OF NODES
16
ITEM: BOX BOUNDS
-0.0323169 323.134
-0.00821494 82.1412
0 78.6006
ITEM: NODES
1 1 -0.0323169 -0.00821494 0
2 1 162.542 -0.00821494 0
3 1 162.542 82.1412 0
4 1 -0.0323169 82.1412 0
5 1 -0.0323169 -0.00821494 78.6006
6 1 162.542 -0.00821494 78.6006
7 1 162.542 82.1412 78.6006
8 1 -0.0323169 82.1412 78.6006
9 1 162.542 -0.00821494 0
10 1 323.134 -0.00821494 0
11 1 323.134 82.1412 0
12 1 162.542 82.1412 0
13 1 162.542 -0.00821494 78.6006
14 1 323.134 -0.00821494 78.6006
15 1 323.134 82.1412 78.6006
16 1 162.542 82.1412 78.6006
ITEM: TIMESTEP
240
ITEM: NUMBER OF CUBES
2
ITEM: CUBES
1 1 1 2 3 4 5 6 7 8
2 1 9 10 11 12 13 14 15 16
ITEM: TIMESTEP
270
ITEM: NUMBER OF NODES
16
ITEM: BOX BOUNDS
-0.0323169 323.134
-0.00821494 82.1412
0 78.6006
ITEM: NODES
1 1 -0.0323169 -0.00821494 0
2 1 162.528 -0.00821494 0
3 1 162.528 82.1412 0
4 1 -0.0323169 82.1412 0
5 1 -0.0323169 -0.00821494 78.6006
6 1 162.528 -0.00821494 78.6006
7 1 162.528 82.1412 78.6006
8 1 -0.0323169 82.1412 78.6006
9 1 162.528 -0.00821494 0
10 1 323.134 -0.00821494 0
11 1 323.134 82.1412 0
12 1 162.528 82.1412 0
13 1 162.528 -0.00821494 78.6006
14 1 323.134 -0.00821494 78.6006
15 1 323.134 82.1412 78.6006
16 1 162.528 82.1412 78.6006
ITEM: TIMESTEP
270
ITEM: NUMBER OF CUBES
2
ITEM: CUBES
1 1 1 2 3 4 5 6 7 8
2 1 9 10 11 12 13 14 15 16
ITEM: TIMESTEP
300
ITEM: NUMBER OF NODES
16
ITEM: BOX BOUNDS
-0.0323169 323.134
-0.00821494 82.1412
0 78.6006
ITEM: NODES
1 1 -0.0323169 -0.00821494 0
2 1 162.514 -0.00821494 0
3 1 162.514 82.1412 0
4 1 -0.0323169 82.1412 0
5 1 -0.0323169 -0.00821494 78.6006
6 1 162.514 -0.00821494 78.6006
7 1 162.514 82.1412 78.6006
8 1 -0.0323169 82.1412 78.6006
9 1 162.514 -0.00821494 0
10 1 323.134 -0.00821494 0
11 1 323.134 82.1412 0
12 1 162.514 82.1412 0
13 1 162.514 -0.00821494 78.6006
14 1 323.134 -0.00821494 78.6006
15 1 323.134 82.1412 78.6006
16 1 162.514 82.1412 78.6006
ITEM: TIMESTEP
300
ITEM: NUMBER OF CUBES
2
ITEM: CUBES
1 1 1 2 3 4 5 6 7 8
2 1 9 10 11 12 13 14 15 16
ITEM: TIMESTEP
330
ITEM: NUMBER OF NODES
16
ITEM: BOX BOUNDS
-0.0323169 323.134
-0.00821494 82.1412
0 78.6006
ITEM: NODES
1 1 -0.0323169 -0.00821494 0
2 1 162.507 -0.00821494 0
3 1 162.507 82.1412 0
4 1 -0.0323169 82.1412 0
5 1 -0.0323169 -0.00821494 78.6006
6 1 162.507 -0.00821494 78.6006
7 1 162.507 82.1412 78.6006
8 1 -0.0323169 82.1412 78.6006
9 1 162.507 -0.00821494 0
10 1 323.134 -0.00821494 0
11 1 323.134 82.1412 0
12 1 162.507 82.1412 0
13 1 162.507 -0.00821494 78.6006
14 1 323.134 -0.00821494 78.6006
15 1 323.134 82.1412 78.6006
16 1 162.507 82.1412 78.6006
ITEM: TIMESTEP
330
ITEM: NUMBER OF CUBES
2
ITEM: CUBES
1 1 1 2 3 4 5 6 7 8
2 1 9 10 11 12 13 14 15 16
ITEM: TIMESTEP
360
ITEM: NUMBER OF NODES
16
ITEM: BOX BOUNDS
-0.0323169 323.134
-0.00821494 82.1412
0 78.6006
ITEM: NODES
1 1 -0.0323169 -0.00821494 0
2 1 162.496 -0.00821494 0
3 1 162.496 82.1412 0
4 1 -0.0323169 82.1412 0
5 1 -0.0323169 -0.00821494 78.6006
6 1 162.496 -0.00821494 78.6006
7 1 162.496 82.1412 78.6006
8 1 -0.0323169 82.1412 78.6006
9 1 162.496 -0.00821494 0
10 1 323.134 -0.00821494 0
11 1 323.134 82.1412 0
12 1 162.496 82.1412 0
13 1 162.496 -0.00821494 78.6006
14 1 323.134 -0.00821494 78.6006
15 1 323.134 82.1412 78.6006
16 1 162.496 82.1412 78.6006
ITEM: TIMESTEP
360
ITEM: NUMBER OF CUBES
2
ITEM: CUBES
1 1 1 2 3 4 5 6 7 8
2 1 9 10 11 12 13 14 15 16
ITEM: TIMESTEP
390
ITEM: NUMBER OF NODES
16
ITEM: BOX BOUNDS
-0.0323169 323.134
-0.00821494 82.1412
0 78.6006
ITEM: NODES
1 1 -0.0323169 -0.00821494 0
2 1 162.487 -0.00821494 0
3 1 162.487 82.1412 0
4 1 -0.0323169 82.1412 0
5 1 -0.0323169 -0.00821494 78.6006
6 1 162.487 -0.00821494 78.6006
7 1 162.487 82.1412 78.6006
8 1 -0.0323169 82.1412 78.6006
9 1 162.487 -0.00821494 0
10 1 323.134 -0.00821494 0
11 1 323.134 82.1412 0
12 1 162.487 82.1412 0
13 1 162.487 -0.00821494 78.6006
14 1 323.134 -0.00821494 78.6006
15 1 323.134 82.1412 78.6006
16 1 162.487 82.1412 78.6006
ITEM: TIMESTEP
390
ITEM: NUMBER OF CUBES
2
ITEM: CUBES
1 1 1 2 3 4 5 6 7 8
2 1 9 10 11 12 13 14 15 16
ITEM: TIMESTEP
420
ITEM: NUMBER OF NODES
16
ITEM: BOX BOUNDS
-0.0323169 323.134
-0.00821494 82.1412
0 78.6006
ITEM: NODES
1 1 -0.0323169 -0.00821494 0
2 1 162.49 -0.00821494 0
3 1 162.49 82.1412 0
4 1 -0.0323169 82.1412 0
5 1 -0.0323169 -0.00821494 78.6006
6 1 162.49 -0.00821494 78.6006
7 1 162.49 82.1412 78.6006
8 1 -0.0323169 82.1412 78.6006
9 1 162.49 -0.00821494 0
10 1 323.134 -0.00821494 0
11 1 323.134 82.1412 0
12 1 162.49 82.1412 0
13 1 162.49 -0.00821494 78.6006
14 1 323.134 -0.00821494 78.6006
15 1 323.134 82.1412 78.6006
16 1 162.49 82.1412 78.6006
ITEM: TIMESTEP
420
ITEM: NUMBER OF CUBES
2
ITEM: CUBES
1 1 1 2 3 4 5 6 7 8
2 1 9 10 11 12 13 14 15 16
ITEM: TIMESTEP
450
ITEM: NUMBER OF NODES
16
ITEM: BOX BOUNDS
-0.0323169 323.134
-0.00821494 82.1412
0 78.6006
ITEM: NODES
1 1 -0.0323169 -0.00821494 0
2 1 162.484 -0.00821494 0
3 1 162.484 82.1412 0
4 1 -0.0323169 82.1412 0
5 1 -0.0323169 -0.00821494 78.6006
6 1 162.484 -0.00821494 78.6006
7 1 162.484 82.1412 78.6006
8 1 -0.0323169 82.1412 78.6006
9 1 162.484 -0.00821494 0
10 1 323.134 -0.00821494 0
11 1 323.134 82.1412 0
12 1 162.484 82.1412 0
13 1 162.484 -0.00821494 78.6006
14 1 323.134 -0.00821494 78.6006
15 1 323.134 82.1412 78.6006
16 1 162.484 82.1412 78.6006
ITEM: TIMESTEP
450
ITEM: NUMBER OF CUBES
2
ITEM: CUBES
1 1 1 2 3 4 5 6 7 8
2 1 9 10 11 12 13 14 15 16
ITEM: TIMESTEP
480
ITEM: NUMBER OF NODES
16
ITEM: BOX BOUNDS
-0.0323169 323.134
-0.00821494 82.1412
0 78.6006
ITEM: NODES
1 1 -0.0323169 -0.00821494 0
2 1 162.477 -0.00821494 0
3 1 162.477 82.1412 0
4 1 -0.0323169 82.1412 0
5 1 -0.0323169 -0.00821494 78.6006
6 1 162.477 -0.00821494 78.6006
7 1 162.477 82.1412 78.6006
8 1 -0.0323169 82.1412 78.6006
9 1 162.477 -0.00821494 0
10 1 323.134 -0.00821494 0
11 1 323.134 82.1412 0
12 1 162.477 82.1412 0
13 1 162.477 -0.00821494 78.6006
14 1 323.134 -0.00821494 78.6006
15 1 323.134 82.1412 78.6006
16 1 162.477 82.1412 78.6006
ITEM: TIMESTEP
480
ITEM: NUMBER OF CUBES
2
ITEM: CUBES
1 1 1 2 3 4 5 6 7 8
2 1 9 10 11 12 13 14 15 16
ITEM: TIMESTEP
510
ITEM: NUMBER OF NODES
16
ITEM: BOX BOUNDS
-0.0323169 323.134
-0.00821494 82.1412
0 78.6006
ITEM: NODES
1 1 -0.0323169 -0.00821494 0
2 1 162.469 -0.00821494 0
3 1 162.469 82.1412 0
4 1 -0.0323169 82.1412 0
5 1 -0.0323169 -0.00821494 78.6006
6 1 162.469 -0.00821494 78.6006
7 1 162.469 82.1412 78.6006
8 1 -0.0323169 82.1412 78.6006
9 1 162.469 -0.00821494 0
10 1 323.134 -0.00821494 0
11 1 323.134 82.1412 0
12 1 162.469 82.1412 0
13 1 162.469 -0.00821494 78.6006
14 1 323.134 -0.00821494 78.6006
15 1 323.134 82.1412 78.6006
16 1 162.469 82.1412 78.6006
ITEM: TIMESTEP
510
ITEM: NUMBER OF CUBES
2
ITEM: CUBES
1 1 1 2 3 4 5 6 7 8
2 1 9 10 11 12 13 14 15 16
ITEM: TIMESTEP
540
ITEM: NUMBER OF NODES
16
ITEM: BOX BOUNDS
-0.0323169 323.134
-0.00821494 82.1412
0 78.6006
ITEM: NODES
1 1 -0.0323169 -0.00821494 0
2 1 162.47 -0.00821494 0
3 1 162.47 82.1412 0
4 1 -0.0323169 82.1412 0
5 1 -0.0323169 -0.00821494 78.6006
6 1 162.47 -0.00821494 78.6006
7 1 162.47 82.1412 78.6006
8 1 -0.0323169 82.1412 78.6006
9 1 162.47 -0.00821494 0
10 1 323.134 -0.00821494 0
11 1 323.134 82.1412 0
12 1 162.47 82.1412 0
13 1 162.47 -0.00821494 78.6006
14 1 323.134 -0.00821494 78.6006
15 1 323.134 82.1412 78.6006
16 1 162.47 82.1412 78.6006
ITEM: TIMESTEP
540
ITEM: NUMBER OF CUBES
2
ITEM: CUBES
1 1 1 2 3 4 5 6 7 8
2 1 9 10 11 12 13 14 15 16
ITEM: TIMESTEP
570
ITEM: NUMBER OF NODES
16
ITEM: BOX BOUNDS
-0.0323169 323.134
-0.00821494 82.1412
0 78.6006
ITEM: NODES
1 1 -0.0323169 -0.00821494 0
2 1 162.46 -0.00821494 0
3 1 162.46 82.1412 0
4 1 -0.0323169 82.1412 0
5 1 -0.0323169 -0.00821494 78.6006
6 1 162.46 -0.00821494 78.6006
7 1 162.46 82.1412 78.6006
8 1 -0.0323169 82.1412 78.6006
9 1 162.46 -0.00821494 0
10 1 323.134 -0.00821494 0
11 1 323.134 82.1412 0
12 1 162.46 82.1412 0
13 1 162.46 -0.00821494 78.6006
14 1 323.134 -0.00821494 78.6006
15 1 323.134 82.1412 78.6006
16 1 162.46 82.1412 78.6006
ITEM: TIMESTEP
570
ITEM: NUMBER OF CUBES
2
ITEM: CUBES
1 1 1 2 3 4 5 6 7 8
2 1 9 10 11 12 13 14 15 16
ITEM: TIMESTEP
600
ITEM: NUMBER OF NODES
16
ITEM: BOX BOUNDS
-0.0323169 323.134
-0.00821494 82.1412
0 78.6006
ITEM: NODES
1 1 -0.0323169 -0.00821494 0
2 1 162.439 -0.00821494 0
3 1 162.439 82.1412 0
4 1 -0.0323169 82.1412 0
5 1 -0.0323169 -0.00821494 78.6006
6 1 162.439 -0.00821494 78.6006
7 1 162.439 82.1412 78.6006
8 1 -0.0323169 82.1412 78.6006
9 1 162.439 -0.00821494 0
10 1 323.134 -0.00821494 0
11 1 323.134 82.1412 0
12 1 162.439 82.1412 0
13 1 162.439 -0.00821494 78.6006
14 1 323.134 -0.00821494 78.6006
15 1 323.134 82.1412 78.6006
16 1 162.439 82.1412 78.6006
ITEM: TIMESTEP
600
ITEM: NUMBER OF CUBES
2
ITEM: CUBES
1 1 1 2 3 4 5 6 7 8
2 1 9 10 11 12 13 14 15 16
ITEM: TIMESTEP
630
ITEM: NUMBER OF NODES
16
ITEM: BOX BOUNDS
-0.0323169 323.134
-0.00821494 82.1412
0 78.6006
ITEM: NODES
1 1 -0.0323169 -0.00821494 0
2 1 162.446 -0.00821494 0
3 1 162.446 82.1412 0
4 1 -0.0323169 82.1412 0
5 1 -0.0323169 -0.00821494 78.6006
6 1 162.446 -0.00821494 78.6006
7 1 162.446 82.1412 78.6006
8 1 -0.0323169 82.1412 78.6006
9 1 162.446 -0.00821494 0
10 1 323.134 -0.00821494 0
11 1 323.134 82.1412 0
12 1 162.446 82.1412 0
13 1 162.446 -0.00821494 78.6006
14 1 323.134 -0.00821494 78.6006
15 1 323.134 82.1412 78.6006
16 1 162.446 82.1412 78.6006
ITEM: TIMESTEP
630
ITEM: NUMBER OF CUBES
2
ITEM: CUBES
1 1 1 2 3 4 5 6 7 8
2 1 9 10 11 12 13 14 15 16
ITEM: TIMESTEP
660
ITEM: NUMBER OF NODES
16
ITEM: BOX BOUNDS
-0.0323169 323.134
-0.00821494 82.1412
0 78.6006
ITEM: NODES
1 1 -0.0323169 -0.00821494 0
2 1 162.429 -0.00821494 0
3 1 162.429 82.1412 0
4 1 -0.0323169 82.1412 0
5 1 -0.0323169 -0.00821494 78.6006
6 1 162.429 -0.00821494 78.6006
7 1 162.429 82.1412 78.6006
8 1 -0.0323169 82.1412 78.6006
9 1 162.429 -0.00821494 0
10 1 323.134 -0.00821494 0
11 1 323.134 82.1412 0
12 1 162.429 82.1412 0
13 1 162.429 -0.00821494 78.6006
14 1 323.134 -0.00821494 78.6006
15 1 323.134 82.1412 78.6006
16 1 162.429 82.1412 78.6006
ITEM: TIMESTEP
660
ITEM: NUMBER OF CUBES
2
ITEM: CUBES
1 1 1 2 3 4 5 6 7 8
2 1 9 10 11 12 13 14 15 16
ITEM: TIMESTEP
690
ITEM: NUMBER OF NODES
16
ITEM: BOX BOUNDS
-0.0323169 323.134
-0.00821494 82.1412
0 78.6006
ITEM: NODES
1 1 -0.0323169 -0.00821494 0
2 1 162.421 -0.00821494 0
3 1 162.421 82.1412 0
4 1 -0.0323169 82.1412 0
5 1 -0.0323169 -0.00821494 78.6006
6 1 162.421 -0.00821494 78.6006
7 1 162.421 82.1412 78.6006
8 1 -0.0323169 82.1412 78.6006
9 1 162.421 -0.00821494 0
10 1 323.134 -0.00821494 0
11 1 323.134 82.1412 0
12 1 162.421 82.1412 0
13 1 162.421 -0.00821494 78.6006
14 1 323.134 -0.00821494 78.6006
15 1 323.134 82.1412 78.6006
16 1 162.421 82.1412 78.6006
ITEM: TIMESTEP
690
ITEM: NUMBER OF CUBES
2
ITEM: CUBES
1 1 1 2 3 4 5 6 7 8
2 1 9 10 11 12 13 14 15 16
ITEM: TIMESTEP
720
ITEM: NUMBER OF NODES
16
ITEM: BOX BOUNDS
-0.0323169 323.134
-0.00821494 82.1412
0 78.6006
ITEM: NODES
1 1 -0.0323169 -0.00821494 0
2 1 162.406 -0.00821494 0
3 1 162.406 82.1412 0
4 1 -0.0323169 82.1412 0
5 1 -0.0323169 -0.00821494 78.6006
6 1 162.406 -0.00821494 78.6006
7 1 162.406 82.1412 78.6006
8 1 -0.0323169 82.1412 78.6006
9 1 162.406 -0.00821494 0
10 1 323.134 -0.00821494 0
11 1 323.134 82.1412 0
12 1 162.406 82.1412 0
13 1 162.406 -0.00821494 78.6006
14 1 323.134 -0.00821494 78.6006
15 1 323.134 82.1412 78.6006
16 1 162.406 82.1412 78.6006
ITEM: TIMESTEP
720
ITEM: NUMBER OF CUBES
2
ITEM: CUBES
1 1 1 2 3 4 5 6 7 8
2 1 9 10 11 12 13 14 15 16
ITEM: TIMESTEP
750
ITEM: NUMBER OF NODES
16
ITEM: BOX BOUNDS
-0.0323169 323.134
-0.00821494 82.1412
0 78.6006
ITEM: NODES
1 1 -0.0323169 -0.00821494 0
2 1 162.393 -0.00821494 0
3 1 162.393 82.1412 0
4 1 -0.0323169 82.1412 0
5 1 -0.0323169 -0.00821494 78.6006
6 1 162.393 -0.00821494 78.6006
7 1 162.393 82.1412 78.6006
8 1 -0.0323169 82.1412 78.6006
9 1 162.393 -0.00821494 0
10 1 323.134 -0.00821494 0
11 1 323.134 82.1412 0
12 1 162.393 82.1412 0
13 1 162.393 -0.00821494 78.6006
14 1 323.134 -0.00821494 78.6006
15 1 323.134 82.1412 78.6006
16 1 162.393 82.1412 78.6006
ITEM: TIMESTEP
750
ITEM: NUMBER OF CUBES
2
ITEM: CUBES
1 1 1 2 3 4 5 6 7 8
2 1 9 10 11 12 13 14 15 16
ITEM: TIMESTEP
780
ITEM: NUMBER OF NODES
16
ITEM: BOX BOUNDS
-0.0323169 323.134
-0.00821494 82.1412
0 78.6006
ITEM: NODES
1 1 -0.0323169 -0.00821494 0
2 1 162.382 -0.00821494 0
3 1 162.382 82.1412 0
4 1 -0.0323169 82.1412 0
5 1 -0.0323169 -0.00821494 78.6006
6 1 162.382 -0.00821494 78.6006
7 1 162.382 82.1412 78.6006
8 1 -0.0323169 82.1412 78.6006
9 1 162.382 -0.00821494 0
10 1 323.134 -0.00821494 0
11 1 323.134 82.1412 0
12 1 162.382 82.1412 0
13 1 162.382 -0.00821494 78.6006
14 1 323.134 -0.00821494 78.6006
15 1 323.134 82.1412 78.6006
16 1 162.382 82.1412 78.6006
ITEM: TIMESTEP
780
ITEM: NUMBER OF CUBES
2
ITEM: CUBES
1 1 1 2 3 4 5 6 7 8
2 1 9 10 11 12 13 14 15 16
ITEM: TIMESTEP
810
ITEM: NUMBER OF NODES
16
ITEM: BOX BOUNDS
-0.0323169 323.134
-0.00821494 82.1412
0 78.6006
ITEM: NODES
1 1 -0.0323169 -0.00821494 0
2 1 162.359 -0.00821494 0
3 1 162.359 82.1412 0
4 1 -0.0323169 82.1412 0
5 1 -0.0323169 -0.00821494 78.6006
6 1 162.359 -0.00821494 78.6006
7 1 162.359 82.1412 78.6006
8 1 -0.0323169 82.1412 78.6006
9 1 162.359 -0.00821494 0
10 1 323.134 -0.00821494 0
11 1 323.134 82.1412 0
12 1 162.359 82.1412 0
13 1 162.359 -0.00821494 78.6006
14 1 323.134 -0.00821494 78.6006
15 1 323.134 82.1412 78.6006
16 1 162.359 82.1412 78.6006
ITEM: TIMESTEP
810
ITEM: NUMBER OF CUBES
2
ITEM: CUBES
1 1 1 2 3 4 5 6 7 8
2 1 9 10 11 12 13 14 15 16
ITEM: TIMESTEP
840
ITEM: NUMBER OF NODES
16
ITEM: BOX BOUNDS
-0.0323169 323.134
-0.00821494 82.1412
0 78.6006
ITEM: NODES
1 1 -0.0323169 -0.00821494 0
2 1 162.352 -0.00821494 0
3 1 162.352 82.1412 0
4 1 -0.0323169 82.1412 0
5 1 -0.0323169 -0.00821494 78.6006
6 1 162.352 -0.00821494 78.6006
7 1 162.352 82.1412 78.6006
8 1 -0.0323169 82.1412 78.6006
9 1 162.352 -0.00821494 0
10 1 323.134 -0.00821494 0
11 1 323.134 82.1412 0
12 1 162.352 82.1412 0
13 1 162.352 -0.00821494 78.6006
14 1 323.134 -0.00821494 78.6006
15 1 323.134 82.1412 78.6006
16 1 162.352 82.1412 78.6006
ITEM: TIMESTEP
840
ITEM: NUMBER OF CUBES
2
ITEM: CUBES
1 1 1 2 3 4 5 6 7 8
2 1 9 10 11 12 13 14 15 16
ITEM: TIMESTEP
870
ITEM: NUMBER OF NODES
16
ITEM: BOX BOUNDS
-0.0323169 323.134
-0.00821494 82.1412
0 78.6006
ITEM: NODES
1 1 -0.0323169 -0.00821494 0
2 1 162.344 -0.00821494 0
3 1 162.344 82.1412 0
4 1 -0.0323169 82.1412 0
5 1 -0.0323169 -0.00821494 78.6006
6 1 162.344 -0.00821494 78.6006
7 1 162.344 82.1412 78.6006
8 1 -0.0323169 82.1412 78.6006
9 1 162.344 -0.00821494 0
10 1 323.134 -0.00821494 0
11 1 323.134 82.1412 0
12 1 162.344 82.1412 0
13 1 162.344 -0.00821494 78.6006
14 1 323.134 -0.00821494 78.6006
15 1 323.134 82.1412 78.6006
16 1 162.344 82.1412 78.6006
ITEM: TIMESTEP
870
ITEM: NUMBER OF CUBES
2
ITEM: CUBES
1 1 1 2 3 4 5 6 7 8
2 1 9 10 11 12 13 14 15 16
ITEM: TIMESTEP
900
ITEM: NUMBER OF NODES
16
ITEM: BOX BOUNDS
-0.0323169 323.134
-0.00821494 82.1412
0 78.6006
ITEM: NODES
1 1 -0.0323169 -0.00821494 0
2 1 162.324 -0.00821494 0
3 1 162.324 82.1412 0
4 1 -0.0323169 82.1412 0
5 1 -0.0323169 -0.00821494 78.6006
6 1 162.324 -0.00821494 78.6006
7 1 162.324 82.1412 78.6006
8 1 -0.0323169 82.1412 78.6006
9 1 162.324 -0.00821494 0
10 1 323.134 -0.00821494 0
11 1 323.134 82.1412 0
12 1 162.324 82.1412 0
13 1 162.324 -0.00821494 78.6006
14 1 323.134 -0.00821494 78.6006
15 1 323.134 82.1412 78.6006
16 1 162.324 82.1412 78.6006
ITEM: TIMESTEP
900
ITEM: NUMBER OF CUBES
2
ITEM: CUBES
1 1 1 2 3 4 5 6 7 8
2 1 9 10 11 12 13 14 15 16
ITEM: TIMESTEP
930
ITEM: NUMBER OF NODES
16
ITEM: BOX BOUNDS
-0.0323169 323.134
-0.00821494 82.1412
0 78.6006
ITEM: NODES
1 1 -0.0323169 -0.00821494 0
2 1 162.321 -0.00821494 0
3 1 162.321 82.1412 0
4 1 -0.0323169 82.1412 0
5 1 -0.0323169 -0.00821494 78.6006
6 1 162.321 -0.00821494 78.6006
7 1 162.321 82.1412 78.6006
8 1 -0.0323169 82.1412 78.6006
9 1 162.321 -0.00821494 0
10 1 323.134 -0.00821494 0
11 1 323.134 82.1412 0
12 1 162.321 82.1412 0
13 1 162.321 -0.00821494 78.6006
14 1 323.134 -0.00821494 78.6006
15 1 323.134 82.1412 78.6006
16 1 162.321 82.1412 78.6006
ITEM: TIMESTEP
930
ITEM: NUMBER OF CUBES
2
ITEM: CUBES
1 1 1 2 3 4 5 6 7 8
2 1 9 10 11 12 13 14 15 16
ITEM: TIMESTEP
960
ITEM: NUMBER OF NODES
16
ITEM: BOX BOUNDS
-0.0323169 323.134
-0.00821494 82.1412
0 78.6006
ITEM: NODES
1 1 -0.0323169 -0.00821494 0
2 1 162.321 -0.00821494 0
3 1 162.321 82.1412 0
4 1 -0.0323169 82.1412 0
5 1 -0.0323169 -0.00821494 78.6006
6 1 162.321 -0.00821494 78.6006
7 1 162.321 82.1412 78.6006
8 1 -0.0323169 82.1412 78.6006
9 1 162.321 -0.00821494 0
10 1 323.134 -0.00821494 0
11 1 323.134 82.1412 0
12 1 162.321 82.1412 0
13 1 162.321 -0.00821494 78.6006
14 1 323.134 -0.00821494 78.6006
15 1 323.134 82.1412 78.6006
16 1 162.321 82.1412 78.6006
ITEM: TIMESTEP
960
ITEM: NUMBER OF CUBES
2
ITEM: CUBES
1 1 1 2 3 4 5 6 7 8
2 1 9 10 11 12 13 14 15 16
ITEM: TIMESTEP
990
ITEM: NUMBER OF NODES
16
ITEM: BOX BOUNDS
-0.0323169 323.134
-0.00821494 82.1412
0 78.6006
ITEM: NODES
1 1 -0.0323169 -0.00821494 0
2 1 162.314 -0.00821494 0
3 1 162.314 82.1412 0
4 1 -0.0323169 82.1412 0
5 1 -0.0323169 -0.00821494 78.6006
6 1 162.314 -0.00821494 78.6006
7 1 162.314 82.1412 78.6006
8 1 -0.0323169 82.1412 78.6006
9 1 162.314 -0.00821494 0
10 1 323.134 -0.00821494 0
11 1 323.134 82.1412 0
12 1 162.314 82.1412 0
13 1 162.314 -0.00821494 78.6006
14 1 323.134 -0.00821494 78.6006
15 1 323.134 82.1412 78.6006
16 1 162.314 82.1412 78.6006
ITEM: TIMESTEP
990
ITEM: NUMBER OF CUBES
2
ITEM: CUBES
1 1 1 2 3 4 5 6 7 8
2 1 9 10 11 12 13 14 15 16
ITEM: TIMESTEP
1020
ITEM: NUMBER OF NODES
16
ITEM: BOX BOUNDS
-0.0323169 323.134
-0.00821494 82.1412
0 78.6006
ITEM: NODES
1 1 -0.0323169 -0.00821494 0
2 1 162.317 -0.00821494 0
3 1 162.317 82.1412 0
4 1 -0.0323169 82.1412 0
5 1 -0.0323169 -0.00821494 78.6006
6 1 162.317 -0.00821494 78.6006
7 1 162.317 82.1412 78.6006
8 1 -0.0323169 82.1412 78.6006
9 1 162.317 -0.00821494 0
10 1 323.134 -0.00821494 0
11 1 323.134 82.1412 0
12 1 162.317 82.1412 0
13 1 162.317 -0.00821494 78.6006
14 1 323.134 -0.00821494 78.6006
15 1 323.134 82.1412 78.6006
16 1 162.317 82.1412 78.6006
ITEM: TIMESTEP
1020
ITEM: NUMBER OF CUBES
2
ITEM: CUBES
1 1 1 2 3 4 5 6 7 8
2 1 9 10 11 12 13 14 15 16
ITEM: TIMESTEP
1050
ITEM: NUMBER OF NODES
16
ITEM: BOX BOUNDS
-0.0323169 323.134
-0.00821494 82.1412
0 78.6006
ITEM: NODES
1 1 -0.0323169 -0.00821494 0
2 1 162.303 -0.00821494 0
3 1 162.303 82.1412 0
4 1 -0.0323169 82.1412 0
5 1 -0.0323169 -0.00821494 78.6006
6 1 162.303 -0.00821494 78.6006
7 1 162.303 82.1412 78.6006
8 1 -0.0323169 82.1412 78.6006
9 1 162.303 -0.00821494 0
10 1 323.134 -0.00821494 0
11 1 323.134 82.1412 0
12 1 162.303 82.1412 0
13 1 162.303 -0.00821494 78.6006
14 1 323.134 -0.00821494 78.6006
15 1 323.134 82.1412 78.6006
16 1 162.303 82.1412 78.6006
ITEM: TIMESTEP
1050
ITEM: NUMBER OF CUBES
2
ITEM: CUBES
1 1 1 2 3 4 5 6 7 8
2 1 9 10 11 12 13 14 15 16
ITEM: TIMESTEP
1080
ITEM: NUMBER OF NODES
16
ITEM: BOX BOUNDS
-0.0323169 323.134
-0.00821494 82.1412
0 78.6006
ITEM: NODES
1 1 -0.0323169 -0.00821494 0
2 1 162.303 -0.00821494 0
3 1 162.303 82.1412 0
4 1 -0.0323169 82.1412 0
5 1 -0.0323169 -0.00821494 78.6006
6 1 162.303 -0.00821494 78.6006
7 1 162.303 82.1412 78.6006
8 1 -0.0323169 82.1412 78.6006
9 1 162.303 -0.00821494 0
10 1 323.134 -0.00821494 0
11 1 323.134 82.1412 0
12 1 162.303 82.1412 0
13 1 162.303 -0.00821494 78.6006
14 1 323.134 -0.00821494 78.6006
15 1 323.134 82.1412 78.6006
16 1 162.303 82.1412 78.6006
ITEM: TIMESTEP
1080
ITEM: NUMBER OF CUBES
2
ITEM: CUBES
1 1 1 2 3 4 5 6 7 8
2 1 9 10 11 12 13 14 15 16
ITEM: TIMESTEP
1110
ITEM: NUMBER OF NODES
16
ITEM: BOX BOUNDS
-0.0323169 323.134
-0.00821494 82.1412
0 78.6006
ITEM: NODES
1 1 -0.0323169 -0.00821494 0
2 1 162.303 -0.00821494 0
3 1 162.303 82.1412 0
4 1 -0.0323169 82.1412 0
5 1 -0.0323169 -0.00821494 78.6006
6 1 162.303 -0.00821494 78.6006
7 1 162.303 82.1412 78.6006
8 1 -0.0323169 82.1412 78.6006
9 1 162.303 -0.00821494 0
10 1 323.134 -0.00821494 0
11 1 323.134 82.1412 0
12 1 162.303 82.1412 0
13 1 162.303 -0.00821494 78.6006
14 1 323.134 -0.00821494 78.6006
15 1 323.134 82.1412 78.6006
16 1 162.303 82.1412 78.6006
ITEM: TIMESTEP
1110
ITEM: NUMBER OF CUBES
2
ITEM: CUBES
1 1 1 2 3 4 5 6 7 8
2 1 9 10 11 12 13 14 15 16
ITEM: TIMESTEP
1140
ITEM: NUMBER OF NODES
16
ITEM: BOX BOUNDS
-0.0323169 323.134
-0.00821494 82.1412
0 78.6006
ITEM: NODES
1 1 -0.0323169 -0.00821494 0
2 1 162.306 -0.00821494 0
3 1 162.306 82.1412 0
4 1 -0.0323169 82.1412 0
5 1 -0.0323169 -0.00821494 78.6006
6 1 162.306 -0.00821494 78.6006
7 1 162.306 82.1412 78.6006
8 1 -0.0323169 82.1412 78.6006
9 1 162.306 -0.00821494 0
10 1 323.134 -0.00821494 0
11 1 323.134 82.1412 0
12 1 162.306 82.1412 0
13 1 162.306 -0.00821494 78.6006
14 1 323.134 -0.00821494 78.6006
15 1 323.134 82.1412 78.6006
16 1 162.306 82.1412 78.6006
ITEM: TIMESTEP
1140
ITEM: NUMBER OF CUBES
2
ITEM: CUBES
1 1 1 2 3 4 5 6 7 8
2 1 9 10 11 12 13 14 15 16
ITEM: TIMESTEP
1170
ITEM: NUMBER OF NODES
16
ITEM: BOX BOUNDS
-0.0323169 323.134
-0.00821494 82.1412
0 78.6006
ITEM: NODES
1 1 -0.0323169 -0.00821494 0
2 1 162.315 -0.00821494 0
3 1 162.315 82.1412 0
4 1 -0.0323169 82.1412 0
5 1 -0.0323169 -0.00821494 78.6006
6 1 162.315 -0.00821494 78.6006
7 1 162.315 82.1412 78.6006
8 1 -0.0323169 82.1412 78.6006
9 1 162.315 -0.00821494 0
10 1 323.134 -0.00821494 0
11 1 323.134 82.1412 0
12 1 162.315 82.1412 0
13 1 162.315 -0.00821494 78.6006
14 1 323.134 -0.00821494 78.6006
15 1 323.134 82.1412 78.6006
16 1 162.315 82.1412 78.6006
ITEM: TIMESTEP
1170
ITEM: NUMBER OF CUBES
2
ITEM: CUBES
1 1 1 2 3 4 5 6 7 8
2 1 9 10 11 12 13 14 15 16
ITEM: TIMESTEP
1200
ITEM: NUMBER OF NODES
16
ITEM: BOX BOUNDS
-0.0323169 323.134
-0.00821494 82.1412
0 78.6006
ITEM: NODES
1 1 -0.0323169 -0.00821494 0
2 1 162.32 -0.00821494 0
3 1 162.32 82.1412 0
4 1 -0.0323169 82.1412 0
5 1 -0.0323169 -0.00821494 78.6006
6 1 162.32 -0.00821494 78.6006
7 1 162.32 82.1412 78.6006
8 1 -0.0323169 82.1412 78.6006
9 1 162.32 -0.00821494 0
10 1 323.134 -0.00821494 0
11 1 323.134 82.1412 0
12 1 162.32 82.1412 0
13 1 162.32 -0.00821494 78.6006
14 1 323.134 -0.00821494 78.6006
15 1 323.134 82.1412 78.6006
16 1 162.32 82.1412 78.6006
ITEM: TIMESTEP
1200
ITEM: NUMBER OF CUBES
2
ITEM: CUBES
1 1 1 2 3 4 5 6 7 8
2 1 9 10 11 12 13 14 15 16
ITEM: TIMESTEP
1230
ITEM: NUMBER OF NODES
16
ITEM: BOX BOUNDS
-0.0323169 323.134
-0.00821494 82.1412
0 78.6006
ITEM: NODES
1 1 -0.0323169 -0.00821494 0
2 1 162.335 -0.00821494 0
3 1 162.335 82.1412 0
4 1 -0.0323169 82.1412 0
5 1 -0.0323169 -0.00821494 78.6006
6 1 162.335 -0.00821494 78.6006
7 1 162.335 82.1412 78.6006
8 1 -0.0323169 82.1412 78.6006
9 1 162.335 -0.00821494 0
10 1 323.134 -0.00821494 0
11 1 323.134 82.1412 0
12 1 162.335 82.1412 0
13 1 162.335 -0.00821494 78.6006
14 1 323.134 -0.00821494 78.6006
15 1 323.134 82.1412 78.6006
16 1 162.335 82.1412 78.6006
ITEM: TIMESTEP
1230
ITEM: NUMBER OF CUBES
2
ITEM: CUBES
1 1 1 2 3 4 5 6 7 8
2 1 9 10 11 12 13 14 15 16
ITEM: TIMESTEP
1260
ITEM: NUMBER OF NODES
16
ITEM: BOX BOUNDS
-0.0323169 323.134
-0.00821494 82.1412
0 78.6006
ITEM: NODES
1 1 -0.0323169 -0.00821494 0
2 1 162.347 -0.00821494 0
3 1 162.347 82.1412 0
4 1 -0.0323169 82.1412 0
5 1 -0.0323169 -0.00821494 78.6006
6 1 162.347 -0.00821494 78.6006
7 1 162.347 82.1412 78.6006
8 1 -0.0323169 82.1412 78.6006
9 1 162.347 -0.00821494 0
10 1 323.134 -0.00821494 0
11 1 323.134 82.1412 0
12 1 162.347 82.1412 0
13 1 162.347 -0.00821494 78.6006
14 1 323.134 -0.00821494 78.6006
15 1 323.134 82.1412 78.6006
16 1 162.347 82.1412 78.6006
ITEM: TIMESTEP
1260
ITEM: NUMBER OF CUBES
2
ITEM: CUBES
1 1 1 2 3 4 5 6 7 8
2 1 9 10 11 12 13 14 15 16
ITEM: TIMESTEP
1290
ITEM: NUMBER OF NODES
16
ITEM: BOX BOUNDS
-0.0323169 323.134
-0.00821494 82.1412
0 78.6006
ITEM: NODES
1 1 -0.0323169 -0.00821494 0
2 1 162.352 -0.00821494 0
3 1 162.352 82.1412 0
4 1 -0.0323169 82.1412 0
5 1 -0.0323169 -0.00821494 78.6006
6 1 162.352 -0.00821494 78.6006
7 1 162.352 82.1412 78.6006
8 1 -0.0323169 82.1412 78.6006
9 1 162.352 -0.00821494 0
10 1 323.134 -0.00821494 0
11 1 323.134 82.1412 0
12 1 162.352 82.1412 0
13 1 162.352 -0.00821494 78.6006
14 1 323.134 -0.00821494 78.6006
15 1 323.134 82.1412 78.6006
16 1 162.352 82.1412 78.6006
ITEM: TIMESTEP
1290
ITEM: NUMBER OF CUBES
2
ITEM: CUBES
1 1 1 2 3 4 5 6 7 8
2 1 9 10 11 12 13 14 15 16
ITEM: TIMESTEP
1320
ITEM: NUMBER OF NODES
16
ITEM: BOX BOUNDS
-0.0323169 323.134
-0.00821494 82.1412
0 78.6006
ITEM: NODES
1 1 -0.0323169 -0.00821494 0
2 1 162.368 -0.00821494 0
3 1 162.368 82.1412 0
4 1 -0.0323169 82.1412 0
5 1 -0.0323169 -0.00821494 78.6006
6 1 162.368 -0.00821494 78.6006
7 1 162.368 82.1412 78.6006